                         Program Version 4.2.1 -  RELEASE  -
|  1>  ! xtb2 opt
|  2>  * xyz  0  1
|  3> C      2.42654140   -0.20949384    0.00000000
|  4> O      1.28280623   -0.58547311   -0.00000000
|  5> H      2.70168996    0.87075500   -0.00000000
|  6> H      3.28896251   -0.91578806   -0.00000000
|  7>  *
|  8>
|  9>                          ****END OF INPUT****
FINAL SINGLE POINT ENERGY        -7.175244024800
FINAL SINGLE POINT ENERGY        -7.175636558290
FINAL SINGLE POINT ENERGY        -7.175644798720
FINAL SINGLE POINT ENERGY        -7.175647435100
FINAL SINGLE POINT ENERGY        -7.175648047870
                    ***********************HURRAY********************
FINAL SINGLE POINT ENERGY        -7.175648090470
                             ****ORCA TERMINATED NORMALLY****
TOTAL RUN TIME: 0 days 0 hours 0 minutes 1 seconds 180 msec
