                         Program Version 4.2.1 -  RELEASE  -
|  1>  ! PBE0 def2-SVP tightscf OPT FREQ
|  2>  * xyz  0  1
|  3> C      2.37161840   -0.20839397   -0.00000001
|  4> O      1.18123883   -0.06995203   -0.00000001
|  5> H      3.18307819    0.52347745    0.00000001
|  6> H      2.96596183   -1.07917569   -0.00000000
|  7>  *
|  8>
|  9>                          ****END OF INPUT****
 Total Charge           Charge          ....    0
 Multiplicity           Mult            ....    1
 Number of Electrons    NEL             ....   16
FINAL SINGLE POINT ENERGY      -114.270528415823
FINAL SINGLE POINT ENERGY      -114.281006833110
FINAL SINGLE POINT ENERGY      -114.283464195946
FINAL SINGLE POINT ENERGY      -114.283866676668
FINAL SINGLE POINT ENERGY      -114.283910893541
FINAL SINGLE POINT ENERGY      -114.283914385657
                    ***********************HURRAY********************

CARTESIAN COORDINATES (ANGSTROEM)
---------------------------------
  C      2.423449   -0.208311   -0.000000
  O      1.235919   -0.066378   -0.000000
  H      3.133389    0.658118    0.000000
  H      2.909139   -1.217473   -0.000000

 Multiplicity           Mult            ....    1
 Number of Electrons    NEL             ....   16
 Basis Dimension        Dim             ....   38

ORBITAL ENERGIES
----------------

  NO   OCC          E(Eh)            E(eV)
   0   2.0000     -19.227664      -523.2113
   1   2.0000     -10.333781      -281.1965
   2   2.0000      -1.082772       -29.4637
   3   2.0000      -0.642918       -17.4947
   4   2.0000      -0.509615       -13.8673
   5   2.0000      -0.466813       -12.7026
   6   2.0000      -0.419684       -11.4202
   7   2.0000      -0.280617        -7.6360
   8   0.0000      -0.035397        -0.9632
   9   0.0000       0.081115         2.2073
  10   0.0000       0.147316         4.0087
  11   0.0000       0.209469         5.7000
  12   0.0000       0.458525        12.4771

MULLIKEN ATOMIC CHARGES
-----------------------
   0 C :    0.147021
   1 O :   -0.221565
   2 H :    0.037986
   3 H :    0.036558
Sum of atomic charges:   -0.0000000

LOEWDIN ATOMIC CHARGES
----------------------
   0 C :    0.128152
   1 O :   -0.116946
   2 H :   -0.005410
   3 H :   -0.005796

  Mayer bond orders larger than 0.100000
B(  0-C ,  1-O ) :   2.1193 B(  0-C ,  2-H ) :   0.9132 B(  0-C ,  3-H ) :   0.9128

FINAL SINGLE POINT ENERGY      -114.283914420920

DIPOLE MOMENT
-------------
                                X             Y             Z
Electronic contribution:     -1.37398       0.16500      -0.00000
Nuclear contribution   :      2.22488      -0.26577       0.00000
                        -----------------------------------------
Total Dipole Moment    :      0.85091      -0.10077       0.00000
                        -----------------------------------------
Magnitude (a.u.)       :      0.85685
Magnitude (Debye)      :      2.17795

VIBRATIONAL FREQUENCIES
-----------------------

Scaling factor for frequencies =  1.000000000  (already applied!)

   0:         0.00 cm**-1
   1:         0.00 cm**-1
   2:         0.00 cm**-1
   3:         0.00 cm**-1
   4:         0.00 cm**-1
   5:         0.00 cm**-1
   6:      1200.30 cm**-1
   7:      1268.72 cm**-1
   8:      1532.95 cm**-1
   9:      1897.53 cm**-1
  10:      2900.98 cm**-1
  11:      2966.00 cm**-1

IR SPECTRUM
-----------

 Mode    freq (cm**-1)   T**2         TX         TY         TZ
-------------------------------------------------------------------
   6:      1200.30    1.692895  ( -0.000001   0.000000  -1.301113)
   7:      1268.72   13.261242  ( -0.443082  -3.614543  -0.000000)
   8:      1532.95    5.980349  (  2.425918  -0.308656   0.000000)
   9:      1897.53  115.012854  (-10.647892   1.278769  -0.000000)
  10:      2900.98   58.031322  (  7.579855  -0.759684   0.000000)
  11:      2966.00  148.706339  (  1.350136  12.119549   0.000000)

--------------------------
THERMOCHEMISTRY AT 298.15K
--------------------------

Temperature         ... 298.15 K
Pressure            ... 1.00 atm
Total Mass          ... 30.03 AMU

Throughout the following assumptions are being made:
  (1) The electronic state is orbitally nondegenerate
  (2) There are no thermally accessible electronically excited states
  (3) Hindered rotations indicated by low frequency modes are not
      treated as such but are treated as vibrations and this may
      cause some error
  (4) All equations used are the standard statistical mechanics
      equations for an ideal gas
  (5) All vibrations are strictly harmonic

freq.    1200.30  E(vib)   ...       0.01
freq.    1268.72  E(vib)   ...       0.01
freq.    1532.95  E(vib)   ...       0.00
freq.    1897.53  E(vib)   ...       0.00
freq.    2900.98  E(vib)   ...       0.00
freq.    2966.00  E(vib)   ...       0.00

------------
INNER ENERGY
------------

The inner energy is: U= E(el) + E(ZPE) + E(vib) + E(rot) + E(trans)
    E(el)   - is the total energy from the electronic structure calculation
              = E(kin-el) + E(nuc-el) + E(el-el) + E(nuc-nuc)
    E(ZPE)  - the the zero temperature vibrational energy from the frequency calculation
    E(vib)  - the the finite temperature correction to E(ZPE) due to population
              of excited vibrational states
    E(rot)  - is the rotational thermal energy
    E(trans)- is the translational thermal energy

Summary of contributions to the inner energy U:
Electronic energy                ...   -114.28391442 Eh
Zero point energy                ...      0.02680602 Eh      16.82 kcal/mol
Thermal vibrational correction   ...      0.00003466 Eh       0.02 kcal/mol
Thermal rotational correction    ...      0.00141627 Eh       0.89 kcal/mol
Thermal translational correction ...      0.00141627 Eh       0.89 kcal/mol
-----------------------------------------------------------------------
Total thermal energy                   -114.25424120 Eh

Summary of corrections to the electronic energy:
(perhaps to be used in another calculation)
Total thermal correction                  0.00286721 Eh       1.80 kcal/mol
Non-thermal (ZPE) correction              0.02680602 Eh      16.82 kcal/mol
-----------------------------------------------------------------------
Total correction                          0.02967322 Eh      18.62 kcal/mol

--------
ENTHALPY
--------

The enthalpy is H = U + kB*T
                kB is Boltzmann's constant
Total free energy                 ...   -114.25424120 Eh
Thermal Enthalpy correction       ...      0.00094421 Eh       0.59 kcal/mol
-----------------------------------------------------------------------
Total Enthalpy                    ...   -114.25329699 Eh

Note: Rotational entropy computed according to Herzberg
Infrared and Raman Spectra, Chapter V,1, Van Nostrand Reinhold, 1945
Point Group:  Cs, Symmetry Number:   1
Rotational constants in cm-1:     9.374019     1.304828     1.145394

Vibrational entropy computed according to the QRRHO of S. Grimme
Chem.Eur.J. 2012 18 9955

-------
ENTROPY
-------

The entropy contributions are T*S = T*(S(el)+S(vib)+S(rot)+S(trans))
     S(el)   - electronic entropy
     S(vib)  - vibrational entropy
     S(rot)  - rotational entropy
     S(trans)- translational entropy
The entropies will be listed as mutliplied by the temperature to get
units of energy

Electronic entropy                ...      0.00000000 Eh      0.00 kcal/mol
Vibrational entropy               ...      0.00004031 Eh      0.03 kcal/mol
Rotational entropy                ...      0.00826460 Eh      5.19 kcal/mol
Translational entropy             ...      0.01716732 Eh     10.77 kcal/mol
-----------------------------------------------------------------------
Final entropy term                ...      0.02547223 Eh     15.98 kcal/mol

In case the symmetry of your molecule has not been determined correctly
or in case you have a reason to use a different symmetry number we print
out the resulting rotational entropy values for sn=1,12 :
 --------------------------------------------------------
|  sn= 1 | S(rot)=       0.00826460 Eh      5.19 kcal/mol|
|  sn= 2 | S(rot)=       0.00761015 Eh      4.78 kcal/mol|
|  sn= 3 | S(rot)=       0.00722731 Eh      4.54 kcal/mol|
|  sn= 4 | S(rot)=       0.00695569 Eh      4.36 kcal/mol|
|  sn= 5 | S(rot)=       0.00674500 Eh      4.23 kcal/mol|
|  sn= 6 | S(rot)=       0.00657286 Eh      4.12 kcal/mol|
|  sn= 7 | S(rot)=       0.00642731 Eh      4.03 kcal/mol|
|  sn= 8 | S(rot)=       0.00630123 Eh      3.95 kcal/mol|
|  sn= 9 | S(rot)=       0.00619003 Eh      3.88 kcal/mol|
|  sn=10 | S(rot)=       0.00609055 Eh      3.82 kcal/mol|
|  sn=11 | S(rot)=       0.00600056 Eh      3.77 kcal/mol|
|  sn=12 | S(rot)=       0.00591840 Eh      3.71 kcal/mol|
 --------------------------------------------------------

-------------------
GIBBS FREE ENERGY
-------------------

The Gibbs free energy is G = H - T*S

Total enthalpy                    ...   -114.25329699 Eh
Total entropy correction          ...     -0.02547223 Eh    -15.98 kcal/mol
-----------------------------------------------------------------------
Final Gibbs free energy         ...   -114.27876922 Eh

For completeness - the Gibbs free energy minus the electronic energy
G-E(el)                           ...      0.00514520 Eh      3.23 kcal/mol

                             ****ORCA TERMINATED NORMALLY****
TOTAL RUN TIME: 0 days 0 hours 0 minutes 27 seconds 960 msec
